Title

18 atoms
17 bonds
30 angles
41 dihedrals
6 impropers

4 atom types
5 bond types
5 angle types

11 dihedral types

1 improper types

-3.393815039 396.606185 xlo xhi
-1.87791891 398.1220811 ylo yhi
-1.524743319 398.4752567 zlo zhi
0.0 0.0 0.0 xy xz yz

Masses

1	12.01078
2	12.01078
3	1.007947
4	1.007947


Pair Coeffs

1	0.10884061	3.3795318
2	0.086879315	3.4806469
3	0.015779483	2.6445434
4	0.015611343	2.5725815

Bond Coeffs

1 harmonic	264.62148576755	1.52190126495
2 harmonic	370.04670688625	1.093899492634
3 harmonic	289.73813263395	1.498646816465
4 harmonic	399.1592953295	1.371688562017
5 harmonic	397.2545789619	1.085358495916


Angle Coeffs

1 harmonic	53.20531626545	116.5475862634
2 harmonic	57.8982893754	126.8062420451
3 harmonic	34.066775159195	129.1835929926
4 harmonic	48.776492647595	115.6030999533
5 harmonic	22.69631544292	130.7309534886


Dihedral Coeffs

1 fourier 1	0.09223874044423	3	0
2 fourier 1	0.3159935921949	2	180
3 fourier 1	0.3247796806857	1	180
4 fourier 1	0.1040663847541	3	0
5 fourier 1	0.1155372516788	3	0
6 fourier 1	-0.3703352413219	2	0
7 fourier 1	0.02664938770063	3	0
8 fourier 1	5.294842998052	2	180
9 fourier 1	0.2962286176719	3	180
10 fourier 1	0.007435022645929	1	0
11 fourier 1	0.1911926717192	3	0


Improper Coeffs

1 0.3666666666666667	-1	2


Atoms

1	1	1	-0.093044444	-2.7478456	-0.5035541	-0.1414343
2	1	1	-0.080344444	-1.3498456	-0.90173486	0.20911718
3	1	1	-0.076344444	-0.32235001	0.086031351	-0.2948729
4	1	1	-0.052144444	1.078012	-0.31743846	0.059019712
5	1	2	-0.16314444	2.0510571	0.68260684	-0.45668046
6	1	2	-0.22594444	2.8695361	1.355545	0.33109601
7	1	3	0.032755556	-2.8406806	0.55836755	-0.44612775
8	1	3	0.032755556	-3.1558052	-1.1483802	-0.97067051
9	1	3	0.032755556	-3.393815	-0.67176623	0.72506352
10	1	3	0.038755556	-1.2403001	-0.99957838	1.3063009
11	1	3	0.038755556	-1.1070389	-1.8779189	-0.28999326
12	1	3	0.041755556	-0.48749417	1.1023448	0.14065889
13	1	3	0.041755556	-0.39628935	0.22092853	-1.3940536
14	1	3	0.046255556	1.3454568	-1.2966451	-0.41935782
15	1	3	0.046255556	1.2064414	-0.40350928	1.1550776
16	1	4	0.11805556	2.0901756	0.86706695	-1.5247433
17	1	4	0.11055556	2.8365802	1.1769987	1.3989435
18	1	4	0.11055556	3.5642054	2.0706359	-0.045438312

Bonds

1	1	1	2
2	2	1	7
3	2	1	8
4	2	1	9
5	1	2	3
6	2	2	10
7	2	2	11
8	1	3	4
9	2	3	12
10	2	3	13
11	3	4	5
12	2	4	14
13	2	4	15
14	4	5	6
15	5	5	16
16	5	6	17
17	5	6	18

Angles

1	1	1	2	3
2	1	1	2	10
3	1	1	2	11
4	1	2	1	7
5	1	2	1	8
6	1	2	1	9
7	1	2	3	4
8	1	2	3	12
9	1	2	3	13
10	1	3	2	10
11	1	3	2	11
12	1	3	4	5
13	1	3	4	14
14	1	3	4	15
15	1	4	3	12
16	1	4	3	13
17	2	4	5	6
18	3	4	5	16
19	1	5	4	14
20	1	5	4	15
21	3	5	6	17
22	3	5	6	18
23	3	6	5	16
24	4	7	1	8
25	4	7	1	9
26	4	8	1	9
27	4	10	2	11
28	4	12	3	13
29	4	14	4	15
30	5	17	6	18

Dihedrals

1	1	1	2	3	4
1	2	1	2	3	4
1	3	1	2	3	4
2	4	1	2	3	12
3	4	1	2	3	13
4	5	2	3	4	5
5	4	2	3	4	14
6	4	2	3	4	15
7	4	3	2	1	7
8	4	3	2	1	8
9	4	3	2	1	9
10	6	3	4	5	6
11	7	3	4	5	16
12	4	4	3	2	10
13	4	4	3	2	11
14	8	4	5	6	17
15	8	4	5	6	18
16	5	5	4	3	12
17	5	5	4	3	13
18	9	6	5	4	14
18	10	6	5	4	14
19	9	6	5	4	15
19	10	6	5	4	15
20	11	7	1	2	10
21	11	7	1	2	11
22	11	8	1	2	10
23	11	8	1	2	11
24	11	9	1	2	10
25	11	9	1	2	11
26	11	10	2	3	12
27	11	10	2	3	13
28	11	11	2	3	12
29	11	11	2	3	13
30	11	12	3	4	14
31	11	12	3	4	15
32	11	13	3	4	14
33	11	13	3	4	15
34	7	14	4	5	16
35	7	15	4	5	16
36	8	16	5	6	17
37	8	16	5	6	18

Impropers

37	1	5	4	6	16
45	1	6	5	17	18
48	1	5	6	16	4
103	1	5	16	4	6
106	1	6	17	18	5
107	1	6	18	5	17
