Title

33 atoms
32 bonds
60 angles
96 dihedrals
6 impropers

4 atom types
5 bond types
5 angle types

11 dihedral types

1 improper types

-5.832338245 394.1676618 xlo xhi
-2.149572793 397.8504272 ylo yhi
-2.17296638 397.8270336 zlo zhi
0.0 0.0 0.0 xy xz yz

Masses

1	12.01078
2	12.01078
3	1.007947
4	1.007947


Pair Coeffs

1	0.10884061	3.3795318
2	0.086879315	3.4806469
3	0.015779483	2.6445434
4	0.015611343	2.5725815

Bond Coeffs

1 harmonic	264.62148576755	1.52190126495
2 harmonic	370.04670688625	1.093899492634
3 harmonic	289.73813263395	1.498646816465
4 harmonic	399.1592953295	1.371688562017
5 harmonic	397.2545789619	1.085358495916


Angle Coeffs

1 harmonic	53.20531626545	116.5475862634
2 harmonic	57.8982893754	126.8062420451
3 harmonic	34.066775159195	129.1835929926
4 harmonic	48.776492647595	115.6030999533
5 harmonic	22.69631544292	130.7309534886


Dihedral Coeffs

1 fourier 1	0.09223874044423	3	0
2 fourier 1	0.3159935921949	2	180
3 fourier 1	0.3247796806857	1	180
4 fourier 1	0.1040663847541	3	0
5 fourier 1	0.1155372516788	3	0
6 fourier 1	-0.3703352413219	2	0
7 fourier 1	0.02664938770063	3	0
8 fourier 1	5.294842998052	2	180
9 fourier 1	0.2962286176719	3	180
10 fourier 1	0.007435022645929	1	0
11 fourier 1	0.1911926717192	3	0


Improper Coeffs

1 0.3666666666666667	-1	2


Atoms

1	1	1	-0.092221212	4.8291295	0.81254937	1.6377229
2	1	1	-0.080521212	3.535148	0.91974519	0.89854975
3	1	1	-0.079521212	2.9071452	-0.45010533	0.62811709
4	1	1	-0.079521212	1.6150556	-0.17241084	-0.1205399
5	1	1	-0.078521212	0.87160391	-1.4131394	-0.46435621
6	1	1	-0.078521212	-0.38120764	-1.0888943	-1.2198693
7	1	1	-0.079521212	-1.3012272	-0.22149059	-0.40712538
8	1	1	-0.076521212	-2.5812228	0.086941552	-1.1749356
9	1	1	-0.051321212	-3.4481687	0.96500913	-0.31543519
10	1	2	-0.16332121	-3.7949102	0.2877948	0.94463152
11	1	2	-0.22712121	-5.0533667	0.03609756	1.2430236
12	1	3	0.032578788	5.6073154	1.3647237	1.0680531
13	1	3	0.032578788	5.1748698	-0.21738089	1.7568553
14	1	3	0.032578788	4.7585541	1.3480543	2.6237112
15	1	3	0.038578788	3.6668709	1.4176003	-0.080436976
16	1	3	0.038578788	2.7963644	1.4688935	1.5151532
17	1	3	0.039078788	3.5928592	-1.0877982	0.073127661
18	1	3	0.039078788	2.6457324	-0.92278109	1.5921824
19	1	3	0.040078788	1.7937515	0.42669385	-1.0190081
20	1	3	0.040078788	0.96888828	0.43421928	0.57936896
21	1	3	0.039078788	1.4775865	-2.1495728	-1.0374931
22	1	3	0.039078788	0.6102005	-1.931204	0.50419797
23	1	3	0.039078788	-0.87052448	-2.0191899	-1.5673512
24	1	3	0.039078788	-0.072003212	-0.56473268	-2.1729664
25	1	3	0.040078788	-0.84687678	0.73021886	-0.11433795
26	1	3	0.040078788	-1.5941881	-0.80269048	0.49095404
27	1	3	0.041578788	-3.0519879	-0.88811645	-1.3971053
28	1	3	0.041578788	-2.3572725	0.55771804	-2.1478734
29	1	3	0.046578788	-2.9310176	1.9199384	-0.05172823
30	1	3	0.046578788	-4.3792422	1.2770342	-0.83898736
31	1	4	0.11987879	-3.0214384	0.00059554408	1.6303016
32	1	4	0.11037879	-5.8323382	0.3313763	0.55367313
33	1	4	0.11037879	-5.3340826	-0.45569684	2.1537696

Bonds

1	1	1	2
2	2	1	12
3	2	1	13
4	2	1	14
5	1	2	3
6	2	2	15
7	2	2	16
8	1	3	4
9	2	3	17
10	2	3	18
11	1	4	5
12	2	4	19
13	2	4	20
14	1	5	6
15	2	5	21
16	2	5	22
17	1	6	7
18	2	6	23
19	2	6	24
20	1	7	8
21	2	7	25
22	2	7	26
23	1	8	9
24	2	8	27
25	2	8	28
26	3	9	10
27	2	9	29
28	2	9	30
29	4	10	11
30	5	10	31
31	5	11	32
32	5	11	33

Angles

1	1	1	2	3
2	1	1	2	15
3	1	1	2	16
4	1	2	1	12
5	1	2	1	13
6	1	2	1	14
7	1	2	3	4
8	1	2	3	17
9	1	2	3	18
10	1	3	2	15
11	1	3	2	16
12	1	3	4	5
13	1	3	4	19
14	1	3	4	20
15	1	4	3	17
16	1	4	3	18
17	1	4	5	6
18	1	4	5	21
19	1	4	5	22
20	1	5	4	19
21	1	5	4	20
22	1	5	6	7
23	1	5	6	23
24	1	5	6	24
25	1	6	5	21
26	1	6	5	22
27	1	6	7	8
28	1	6	7	25
29	1	6	7	26
30	1	7	6	23
31	1	7	6	24
32	1	7	8	9
33	1	7	8	27
34	1	7	8	28
35	1	8	7	25
36	1	8	7	26
37	1	8	9	10
38	1	8	9	29
39	1	8	9	30
40	1	9	8	27
41	1	9	8	28
42	2	9	10	11
43	3	9	10	31
44	1	10	9	29
45	1	10	9	30
46	3	10	11	32
47	3	10	11	33
48	3	11	10	31
49	4	12	1	13
50	4	12	1	14
51	4	13	1	14
52	4	15	2	16
53	4	17	3	18
54	4	19	4	20
55	4	21	5	22
56	4	23	6	24
57	4	25	7	26
58	4	27	8	28
59	4	29	9	30
60	5	32	11	33

Dihedrals

1	1	1	2	3	4
1	2	1	2	3	4
1	3	1	2	3	4
2	4	1	2	3	17
3	4	1	2	3	18
4	1	2	3	4	5
4	2	2	3	4	5
4	3	2	3	4	5
5	4	2	3	4	19
6	4	2	3	4	20
7	4	3	2	1	12
8	4	3	2	1	13
9	4	3	2	1	14
10	1	3	4	5	6
10	2	3	4	5	6
10	3	3	4	5	6
11	4	3	4	5	21
12	4	3	4	5	22
13	4	4	3	2	15
14	4	4	3	2	16
15	1	4	5	6	7
15	2	4	5	6	7
15	3	4	5	6	7
16	4	4	5	6	23
17	4	4	5	6	24
18	4	5	4	3	17
19	4	5	4	3	18
20	1	5	6	7	8
20	2	5	6	7	8
20	3	5	6	7	8
21	4	5	6	7	25
22	4	5	6	7	26
23	4	6	5	4	19
24	4	6	5	4	20
25	1	6	7	8	9
25	2	6	7	8	9
25	3	6	7	8	9
26	4	6	7	8	27
27	4	6	7	8	28
28	4	7	6	5	21
29	4	7	6	5	22
30	5	7	8	9	10
31	4	7	8	9	29
32	4	7	8	9	30
33	4	8	7	6	23
34	4	8	7	6	24
35	6	8	9	10	11
36	7	8	9	10	31
37	4	9	8	7	25
38	4	9	8	7	26
39	8	9	10	11	32
40	8	9	10	11	33
41	5	10	9	8	27
42	5	10	9	8	28
43	9	11	10	9	29
43	10	11	10	9	29
44	9	11	10	9	30
44	10	11	10	9	30
45	11	12	1	2	15
46	11	12	1	2	16
47	11	13	1	2	15
48	11	13	1	2	16
49	11	14	1	2	15
50	11	14	1	2	16
51	11	15	2	3	17
52	11	15	2	3	18
53	11	16	2	3	17
54	11	16	2	3	18
55	11	17	3	4	19
56	11	17	3	4	20
57	11	18	3	4	19
58	11	18	3	4	20
59	11	19	4	5	21
60	11	19	4	5	22
61	11	20	4	5	21
62	11	20	4	5	22
63	11	21	5	6	23
64	11	21	5	6	24
65	11	22	5	6	23
66	11	22	5	6	24
67	11	23	6	7	25
68	11	23	6	7	26
69	11	24	6	7	25
70	11	24	6	7	26
71	11	25	7	8	27
72	11	25	7	8	28
73	11	26	7	8	27
74	11	26	7	8	28
75	11	27	8	9	29
76	11	27	8	9	30
77	11	28	8	9	29
78	11	28	8	9	30
79	7	29	9	10	31
80	7	30	9	10	31
81	8	31	10	11	32
82	8	31	10	11	33

Impropers

97	1	10	9	11	31
105	1	11	10	32	33
108	1	10	11	31	9
223	1	10	31	9	11
226	1	11	32	33	10
227	1	11	33	10	32
