Title

21 atoms
21 bonds
36 angles
45 dihedrals
18 impropers

4 atom types
5 bond types
4 angle types

4 dihedral types

1 improper types

-3.951832044 396.048168 xlo xhi
-1.906966309 398.0930337 ylo yhi
-1.576399025 398.423601 zlo zhi
0.0 0.0 0.0 xy xz yz

Masses

1	12.01078
2	12.01078
3	1.007947
4	1.007947


Pair Coeffs

1	0.10884061	3.3795318
2	0.086879315	3.4806469
3	0.015779483	2.6445434
4	0.015611343	2.5725815

Bond Coeffs

1 harmonic	264.62148576755	1.52190126495
2 harmonic	370.04670688625	1.093899492634
3 harmonic	289.73813263395	1.498646816465
4 harmonic	360.7852444772	1.387193227181
5 harmonic	397.2545789619	1.085358495916


Angle Coeffs

1 harmonic	53.20531626545	116.5475862634
2 harmonic	57.8982893754	126.8062420451
3 harmonic	34.066775159195	129.1835929926
4 harmonic	48.776492647595	115.6030999533


Dihedral Coeffs

1 fourier 1	0.02664938770063	3	0
2 fourier 1	3.661930099076	2	180
3 fourier 1	0.1155372516788	3	0
4 fourier 1	0.1911926717192	3	0


Improper Coeffs

1 0.3666666666666667	-1	2


Atoms

1	1	1	-0.089147667	3.0670117	0.52080625	0.50675016
2	1	1	-0.037147667	2.2783587	-0.31927719	-0.48262524
3	1	2	-0.081347667	0.82825312	-0.24190934	-0.25552234
4	1	2	-0.12454767	0.17037459	-1.1142839	0.57964964
5	1	2	-0.12904767	-1.1970071	-1.0251802	0.78075355
6	1	2	-0.080347667	-1.9430344	-0.054198041	0.14631406
7	1	2	-0.12904767	-1.2654564	0.81000246	-0.68619371
8	1	2	-0.12454767	0.10155556	0.73218852	-0.89633735
9	1	1	-0.052847667	-3.3975344	0.10603439	0.30743246
10	1	3	0.035652333	3.216195	1.5392899	0.12495493
11	1	3	0.035652333	4.0678905	0.032772229	0.65401491
12	1	3	0.035652333	2.5868463	0.5071319	1.5273613
13	1	3	0.045652333	2.5711195	-1.390263	-0.37431744
14	1	3	0.045652333	2.5750796	0.010736308	-1.4980241
15	1	4	0.12995233	0.72106751	-1.9069663	1.1092415
16	1	4	0.12995233	-1.7278847	-1.7015748	1.4324332
17	1	4	0.12995233	-1.8397703	1.5784405	-1.1914977
18	1	4	0.12995233	0.57690036	1.4574509	-1.576399
19	1	3	0.043319333	-3.951832	-0.23980036	-0.60744339
20	1	3	0.043319333	-3.6337004	1.1913455	0.39642661
21	1	3	0.043319333	-3.8044329	-0.49274581	1.1473658

Bonds

1	1	1	2
2	2	1	10
3	2	1	11
4	2	1	12
5	3	2	3
6	2	2	13
7	2	2	14
8	4	3	4
9	4	3	8
10	4	4	5
11	5	4	15
12	4	5	6
13	5	5	16
14	4	6	7
15	3	6	9
16	4	7	8
17	5	7	17
18	5	8	18
19	2	9	19
20	2	9	20
21	2	9	21

Angles

1	1	1	2	3
2	1	1	2	13
3	1	1	2	14
4	1	2	1	10
5	1	2	1	11
6	1	2	1	12
7	2	2	3	4
8	2	2	3	8
9	1	3	2	13
10	1	3	2	14
11	2	3	4	5
12	3	3	4	15
13	2	3	8	7
14	3	3	8	18
15	2	4	3	8
16	2	4	5	6
17	3	4	5	16
18	3	5	4	15
19	2	5	6	7
20	2	5	6	9
21	3	6	5	16
22	2	6	7	8
23	3	6	7	17
24	1	6	9	19
25	1	6	9	20
26	1	6	9	21
27	2	7	6	9
28	3	7	8	18
29	3	8	7	17
30	4	10	1	11
31	4	10	1	12
32	4	11	1	12
33	4	13	2	14
34	4	19	9	20
35	4	19	9	21
36	4	20	9	21

Dihedrals

1	1	1	2	3	4
2	1	1	2	3	8
3	2	2	3	4	5
4	2	2	3	4	15
5	2	2	3	8	7
6	2	2	3	8	18
7	3	3	2	1	10
8	3	3	2	1	11
9	3	3	2	1	12
10	2	3	4	5	6
11	2	3	4	5	16
12	2	3	8	7	6
13	2	3	8	7	17
14	1	4	3	2	13
15	1	4	3	2	14
16	2	4	3	8	7
17	2	4	3	8	18
18	2	4	5	6	7
19	2	4	5	6	9
20	2	5	4	3	8
21	2	5	6	7	8
22	2	5	6	7	17
23	1	5	6	9	19
24	1	5	6	9	20
25	1	5	6	9	21
26	2	6	5	4	15
27	2	6	7	8	18
28	2	7	6	5	16
29	1	7	6	9	19
30	1	7	6	9	20
31	1	7	6	9	21
32	1	8	3	2	13
33	1	8	3	2	14
34	2	8	3	4	15
35	2	8	7	6	9
36	2	9	6	5	16
37	2	9	6	7	17
38	4	10	1	2	13
39	4	10	1	2	14
40	4	11	1	2	13
41	4	11	1	2	14
42	4	12	1	2	13
43	4	12	1	2	14
44	2	15	4	5	16
45	2	17	7	8	18

Impropers

13	1	3	2	4	8
21	1	4	3	5	15
23	1	8	3	7	18
26	1	3	4	8	2
27	1	5	4	6	16
30	1	4	5	15	3
31	1	6	5	7	9
34	1	5	6	16	4
35	1	7	6	8	17
44	1	6	7	9	5
46	1	8	7	18	3
47	1	3	8	2	4
50	1	7	8	17	6
51	1	6	9	5	7
83	1	4	15	3	5
85	1	5	16	4	6
87	1	7	17	6	8
89	1	8	18	3	7
