Title

12 atoms
11 bonds
18 angles
23 dihedrals
6 impropers

4 atom types
4 bond types
4 angle types

6 dihedral types

1 improper types

-2.454153592 397.5458464 xlo xhi
-1.311727604 398.6882724 ylo yhi
-0.8811084374 399.1188916 zlo zhi
0.0 0.0 0.0 xy xz yz

Masses

1	12.01078
2	12.01078
3	1.007947
4	1.007947


Pair Coeffs

1	0.10884061	3.3795318
2	0.086879315	3.4806469
3	0.015779483	2.6445434
4	0.015611343	2.5725815

Bond Coeffs

1 harmonic	289.73813263395	1.498646816465
2 harmonic	370.04670688625	1.093899492634
3 harmonic	399.1592953295	1.371688562017
4 harmonic	397.2545789619	1.085358495916


Angle Coeffs

1 harmonic	57.8982893754	126.8062420451
2 harmonic	34.066775159195	129.1835929926
3 harmonic	53.20531626545	116.5475862634
4 harmonic	48.776492647595	115.6030999533


Dihedral Coeffs

1 fourier 1	5.082239018622	2	180
2 fourier 1	1.654695451548	1	180
3 fourier 1	5.294842998052	2	180
4 fourier 1	0.2962286176719	3	180
5 fourier 1	0.007435022645929	1	0
6 fourier 1	0.02664938770063	3	0


Improper Coeffs

1 0.3666666666666667	-1	2


Atoms

1	1	1	-0.063900167	1.3065004	-0.56163939	-0.097424836
2	1	2	-0.17370017	0.66559516	0.75144308	-0.38544392
3	1	2	-0.17370017	-0.62068307	0.92348679	-0.15744604
4	1	1	-0.063900167	-1.3771274	-0.22513321	0.3855954
5	1	3	0.040366833	0.99976028	-1.3117276	-0.88110844
6	1	3	0.040366833	1.0409078	-0.95225638	0.90756648
7	1	3	0.040366833	2.4113918	-0.49431384	-0.14579864
8	1	4	0.11649983	1.2589702	1.5672382	-0.78353503
9	1	4	0.11649983	-1.0570497	1.8800989	-0.37403418
10	1	3	0.040366833	-2.4541536	-0.19458569	0.10988615
11	1	3	0.040366833	-0.95295593	-1.1624372	-0.068937843
12	1	3	0.040366833	-1.2211559	-0.22017362	1.4906809

Bonds

1	1	1	2
2	2	1	5
3	2	1	6
4	2	1	7
5	3	2	3
6	4	2	8
7	1	3	4
8	4	3	9
9	2	4	10
10	2	4	11
11	2	4	12

Angles

1	1	1	2	3
2	2	1	2	8
3	3	2	1	5
4	3	2	1	6
5	3	2	1	7
6	1	2	3	4
7	2	2	3	9
8	2	3	2	8
9	3	3	4	10
10	3	3	4	11
11	3	3	4	12
12	2	4	3	9
13	4	5	1	6
14	4	5	1	7
15	4	6	1	7
16	4	10	4	11
17	4	10	4	12
18	4	11	4	12

Dihedrals

1	1	1	2	3	4
1	2	1	2	3	4
2	3	1	2	3	9
3	4	2	3	4	10
3	5	2	3	4	10
4	4	2	3	4	11
4	5	2	3	4	11
5	4	2	3	4	12
5	5	2	3	4	12
6	4	3	2	1	5
6	5	3	2	1	5
7	4	3	2	1	6
7	5	3	2	1	6
8	4	3	2	1	7
8	5	3	2	1	7
9	3	4	3	2	8
10	6	5	1	2	8
11	6	6	1	2	8
12	6	7	1	2	8
13	3	8	2	3	9
14	6	9	3	4	10
15	6	9	3	4	11
16	6	9	3	4	12

Impropers

1	1	2	1	3	8
9	1	3	2	4	9
12	1	2	3	8	1
20	1	3	4	9	2
39	1	2	8	1	3
41	1	3	9	2	4
