Title

18 atoms
17 bonds
30 angles
39 dihedrals
6 impropers

4 atom types
5 bond types
4 angle types

9 dihedral types

1 improper types

-3.390620937 396.6093791 xlo xhi
-1.924789343 398.0752107 ylo yhi
-1.461786575 398.5382134 zlo zhi
0.0 0.0 0.0 xy xz yz

Masses

1	12.01078
2	12.01078
3	1.007947
4	1.007947


Pair Coeffs

1	0.10884061	3.3795318
2	0.086879315	3.4806469
3	0.015779483	2.6445434
4	0.015611343	2.5725815

Bond Coeffs

1 harmonic	264.62148576755	1.52190126495
2 harmonic	370.04670688625	1.093899492634
3 harmonic	289.73813263395	1.498646816465
4 harmonic	399.1592953295	1.371688562017
5 harmonic	397.2545789619	1.085358495916


Angle Coeffs

1 harmonic	53.20531626545	116.5475862634
2 harmonic	57.8982893754	126.8062420451
3 harmonic	34.066775159195	129.1835929926
4 harmonic	48.776492647595	115.6030999533


Dihedral Coeffs

1 fourier 1	-0.3703352413219	2	0
2 fourier 1	0.02664938770063	3	0
3 fourier 1	5.082239018622	2	180
4 fourier 1	1.654695451548	1	180
5 fourier 1	5.294842998052	2	180
6 fourier 1	0.1155372516788	3	0
7 fourier 1	0.2962286176719	3	180
8 fourier 1	0.007435022645929	1	0
9 fourier 1	0.1911926717192	3	0


Improper Coeffs

1 0.3666666666666667	-1	2


Atoms

1	1	1	-0.091211	-2.6503126	0.11516274	0.31612549
2	1	1	-0.050311	-1.3406302	0.45615064	-0.42315054
3	1	2	-0.174311	-0.56936644	-0.78826831	-0.46601818
4	1	2	-0.174311	0.6028733	-0.94867386	0.054822913
5	1	1	-0.050311	1.3136074	0.12786347	0.76849007
6	1	1	-0.091211	2.6199466	0.34360705	-0.017859215
7	1	3	0.033922	-3.3906209	-0.32594139	-0.37847469
8	1	3	0.033922	-3.0342909	1.0771528	0.71194324
9	1	3	0.033922	-2.3635672	-0.57148277	1.1357379
10	1	3	0.046089	-1.6003686	0.82054871	-1.4617866
11	1	3	0.046089	-0.88596197	1.3175127	0.063904067
12	1	4	0.121889	-1.0204052	-1.6597603	-0.9824296
13	1	4	0.121889	1.1484395	-1.9247893	-0.0081674929
14	1	3	0.046089	1.5785666	-0.25357961	1.7889601
15	1	3	0.046089	0.80088876	1.0615118	0.91401431
16	1	3	0.033922	2.9696645	1.3969418	0.10851583
17	1	3	0.033922	3.3709822	-0.33752301	0.38206127
18	1	3	0.033922	2.4505553	0.093567015	-1.0847689

Bonds

1	1	1	2
2	2	1	7
3	2	1	8
4	2	1	9
5	3	2	3
6	2	2	10
7	2	2	11
8	4	3	4
9	5	3	12
10	3	4	5
11	5	4	13
12	1	5	6
13	2	5	14
14	2	5	15
15	2	6	16
16	2	6	17
17	2	6	18

Angles

1	1	1	2	3
2	1	1	2	10
3	1	1	2	11
4	1	2	1	7
5	1	2	1	8
6	1	2	1	9
7	2	2	3	4
8	3	2	3	12
9	1	3	2	10
10	1	3	2	11
11	2	3	4	5
12	3	3	4	13
13	3	4	3	12
14	1	4	5	6
15	1	4	5	14
16	1	4	5	15
17	3	5	4	13
18	1	5	6	16
19	1	5	6	17
20	1	5	6	18
21	1	6	5	14
22	1	6	5	15
23	4	7	1	8
24	4	7	1	9
25	4	8	1	9
26	4	10	2	11
27	4	14	5	15
28	4	16	6	17
29	4	16	6	18
30	4	17	6	18

Dihedrals

1	1	1	2	3	4
2	2	1	2	3	12
3	3	2	3	4	5
3	4	2	3	4	5
4	5	2	3	4	13
5	6	3	2	1	7
6	6	3	2	1	8
7	6	3	2	1	9
8	1	3	4	5	6
9	7	3	4	5	14
9	8	3	4	5	14
10	7	3	4	5	15
10	8	3	4	5	15
11	7	4	3	2	10
11	8	4	3	2	10
12	7	4	3	2	11
12	8	4	3	2	11
13	6	4	5	6	16
14	6	4	5	6	17
15	6	4	5	6	18
16	5	5	4	3	12
17	2	6	5	4	13
18	9	7	1	2	10
19	9	7	1	2	11
20	9	8	1	2	10
21	9	8	1	2	11
22	9	9	1	2	10
23	9	9	1	2	11
24	2	10	2	3	12
25	2	11	2	3	12
26	5	12	3	4	13
27	2	13	4	5	14
28	2	13	4	5	15
29	9	14	5	6	16
30	9	14	5	6	17
31	9	14	5	6	18
32	9	15	5	6	16
33	9	15	5	6	17
34	9	15	5	6	18

Impropers

13	1	3	2	4	12
21	1	4	3	5	13
24	1	3	4	12	2
32	1	4	5	13	3
75	1	3	12	2	4
77	1	4	13	3	5
