Title

21 atoms
21 bonds
36 angles
48 dihedrals
18 impropers

4 atom types
5 bond types
4 angle types

5 dihedral types

1 improper types

-3.002218854 396.9977811 xlo xhi
-1.98477492 398.0152251 ylo yhi
-2.003428858 397.9965711 zlo zhi
0.0 0.0 0.0 xy xz yz

Masses

1	12.01078
2	12.01078
3	1.007947
4	1.007947


Pair Coeffs

1	0.10884061	3.3795318
2	0.086879315	3.4806469
3	0.015779483	2.6445434
4	0.015611343	2.5725815

Bond Coeffs

1 harmonic	264.62148576755	1.52190126495
2 harmonic	370.04670688625	1.093899492634
3 harmonic	289.73813263395	1.498646816465
4 harmonic	360.7852444772	1.387193227181
5 harmonic	397.2545789619	1.085358495916


Angle Coeffs

1 harmonic	53.20531626545	116.5475862634
2 harmonic	57.8982893754	126.8062420451
3 harmonic	34.066775159195	129.1835929926
4 harmonic	48.776492647595	115.6030999533


Dihedral Coeffs

1 fourier 1	0.1040663847541	3	0
2 fourier 1	0.02664938770063	3	0
3 fourier 1	3.661930099076	2	180
4 fourier 1	0.1155372516788	3	0
5 fourier 1	0.1911926717192	3	0


Improper Coeffs

1 0.3666666666666667	-1	2


Atoms

1	1	1	-0.088147714	-1.8808193	-0.98485182	0.78799603
2	1	1	-0.024447714	-1.2885816	-0.16545301	-0.33385493
3	1	1	-0.088147714	-1.9686222	1.1808812	-0.35832924
4	1	2	-0.073347714	0.15480833	-0.095226418	-0.15537338
5	1	2	-0.12654771	0.99460742	-0.6278457	-1.0999393
6	1	2	-0.12904771	2.3848249	-0.57563801	-0.95624839
7	1	2	-0.13304771	2.8834369	0.03117431	0.17038342
8	1	2	-0.12904771	2.0644152	0.57602929	1.1380278
9	1	2	-0.12654771	0.68722404	0.50548999	0.9612959
10	1	3	0.036319286	-1.3635542	-1.9847749	0.76096997
11	1	3	0.036319286	-2.9464634	-1.1681351	0.52667369
12	1	3	0.036319286	-1.7667538	-0.47547719	1.754493
13	1	3	0.049652286	-1.5461143	-0.67613902	-1.2765036
14	1	3	0.036319286	-2.1085282	1.6119162	0.64773103
15	1	3	0.036319286	-3.0022189	0.9968574	-0.75593024
16	1	3	0.036319286	-1.4634533	1.8903017	-1.0150813
17	1	4	0.13045229	0.63748958	-1.1152747	-2.0034289
18	1	4	0.12995229	3.0555992	-0.99130412	-1.6928237
19	1	4	0.12995229	3.9671685	0.084983339	0.30636732
20	1	4	0.12995229	2.4538814	1.0522442	2.0221691
21	1	4	0.13045229	0.051653647	0.93024238	1.7157437

Bonds

1	1	1	2
2	2	1	10
3	2	1	11
4	2	1	12
5	1	2	3
6	3	2	4
7	2	2	13
8	2	3	14
9	2	3	15
10	2	3	16
11	4	4	5
12	4	4	9
13	4	5	6
14	5	5	17
15	4	6	7
16	5	6	18
17	4	7	8
18	5	7	19
19	4	8	9
20	5	8	20
21	5	9	21

Angles

1	1	1	2	3
2	1	1	2	4
3	1	1	2	13
4	1	2	1	10
5	1	2	1	11
6	1	2	1	12
7	1	2	3	14
8	1	2	3	15
9	1	2	3	16
10	2	2	4	5
11	2	2	4	9
12	1	3	2	4
13	1	3	2	13
14	1	4	2	13
15	2	4	5	6
16	3	4	5	17
17	2	4	9	8
18	3	4	9	21
19	2	5	4	9
20	2	5	6	7
21	3	5	6	18
22	3	6	5	17
23	2	6	7	8
24	3	6	7	19
25	3	7	6	18
26	2	7	8	9
27	3	7	8	20
28	3	8	7	19
29	3	8	9	21
30	3	9	8	20
31	4	10	1	11
32	4	10	1	12
33	4	11	1	12
34	4	14	3	15
35	4	14	3	16
36	4	15	3	16

Dihedrals

1	1	1	2	3	14
2	1	1	2	3	15
3	1	1	2	3	16
4	2	1	2	4	5
5	2	1	2	4	9
6	3	2	4	5	6
7	3	2	4	5	17
8	3	2	4	9	8
9	3	2	4	9	21
10	1	3	2	1	10
11	1	3	2	1	11
12	1	3	2	1	12
13	2	3	2	4	5
14	2	3	2	4	9
15	4	4	2	1	10
16	4	4	2	1	11
17	4	4	2	1	12
18	4	4	2	3	14
19	4	4	2	3	15
20	4	4	2	3	16
21	3	4	5	6	7
22	3	4	5	6	18
23	3	4	9	8	7
24	3	4	9	8	20
25	2	5	4	2	13
26	3	5	4	9	8
27	3	5	4	9	21
28	3	5	6	7	8
29	3	5	6	7	19
30	3	6	5	4	9
31	3	6	7	8	9
32	3	6	7	8	20
33	3	7	6	5	17
34	3	7	8	9	21
35	3	8	7	6	18
36	2	9	4	2	13
37	3	9	4	5	17
38	3	9	8	7	19
39	5	10	1	2	13
40	5	11	1	2	13
41	5	12	1	2	13
42	5	13	2	3	14
43	5	13	2	3	15
44	5	13	2	3	16
45	3	17	5	6	18
46	3	18	6	7	19
47	3	19	7	8	20
48	3	20	8	9	21

Impropers

19	1	4	2	5	9
33	1	5	4	6	17
35	1	9	4	8	21
38	1	4	5	9	2
39	1	6	5	7	18
42	1	5	6	17	4
43	1	7	6	8	19
46	1	6	7	18	5
47	1	8	7	9	20
50	1	7	8	19	6
52	1	9	8	21	4
53	1	4	9	2	5
56	1	8	9	20	7
99	1	5	17	4	6
101	1	6	18	5	7
103	1	7	19	6	8
105	1	8	20	7	9
107	1	9	21	4	8
