Title

18 atoms
18 bonds
36 angles
66 dihedrals
0 impropers

2 atom types
2 bond types
2 angle types

5 dihedral types

-2.240565728 397.7594343 xlo xhi
-2.430179252 397.5698207 ylo yhi
-1.429027875 398.5709721 zlo zhi
0.0 0.0 0.0 xy xz yz

Masses

1	12.01078
2	1.007947


Pair Coeffs

1	0.10884061	3.3795318
2	0.015779483	2.6445434

Bond Coeffs

1 harmonic	264.62148576755	1.52190126495
2 harmonic	370.04670688625	1.093899492634


Angle Coeffs

1 harmonic	53.20531626545	116.5475862634
2 harmonic	48.776492647595	115.6030999533


Dihedral Coeffs

1 fourier 1	0.09223874044423	3	0
2 fourier 1	0.3159935921949	2	180
3 fourier 1	0.3247796806857	1	180
4 fourier 1	0.1040663847541	3	0
5 fourier 1	0.1911926717192	3	0


Atoms

1	1	1	-0.0764	1.1064195	0.87909292	-0.14941988
2	1	1	-0.0764	-0.29080476	1.3805427	-0.37189619
3	1	1	-0.0764	-1.2326553	0.58897333	0.49498626
4	1	1	-0.0764	-1.1969455	-0.85018014	-0.032827109
5	1	1	-0.0764	0.16944231	-1.3876026	0.39668496
6	1	1	-0.0764	1.2463915	-0.60536716	-0.28750668
7	1	2	0.0382	1.7705849	1.3352555	-0.94211854
8	1	2	0.0382	1.5369224	1.2657894	0.81303022
9	1	2	0.0382	-0.32116732	2.4496373	-0.13172216
10	1	2	0.0382	-0.55602933	1.149377	-1.4290279
11	1	2	0.0382	-2.2405657	0.9885936	0.55712761
12	1	2	0.0382	-0.79967714	0.53775831	1.5129194
13	1	2	0.0382	-1.1712041	-0.84017787	-1.149061
14	1	2	0.0382	-2.0242933	-1.4445837	0.34806504
15	1	2	0.0382	0.22984234	-2.4301793	0.059865882
16	1	2	0.0382	0.24746944	-1.2815005	1.5022336
17	1	2	0.0382	1.291936	-0.853279	-1.3572276
18	1	2	0.0382	2.2343342	-0.88214983	0.16589407

Bonds

1	1	1	2
2	1	1	6
3	2	1	7
4	2	1	8
5	1	2	3
6	2	2	9
7	2	2	10
8	1	3	4
9	2	3	11
10	2	3	12
11	1	4	5
12	2	4	13
13	2	4	14
14	1	5	6
15	2	5	15
16	2	5	16
17	2	6	17
18	2	6	18

Angles

1	1	1	2	3
2	1	1	2	9
3	1	1	2	10
4	1	1	6	5
5	1	1	6	17
6	1	1	6	18
7	1	2	1	6
8	1	2	1	7
9	1	2	1	8
10	1	2	3	4
11	1	2	3	11
12	1	2	3	12
13	1	3	2	9
14	1	3	2	10
15	1	3	4	5
16	1	3	4	13
17	1	3	4	14
18	1	4	3	11
19	1	4	3	12
20	1	4	5	6
21	1	4	5	15
22	1	4	5	16
23	1	5	4	13
24	1	5	4	14
25	1	5	6	17
26	1	5	6	18
27	1	6	1	7
28	1	6	1	8
29	1	6	5	15
30	1	6	5	16
31	2	7	1	8
32	2	9	2	10
33	2	11	3	12
34	2	13	4	14
35	2	15	5	16
36	2	17	6	18

Dihedrals

1	1	1	2	3	4
1	2	1	2	3	4
1	3	1	2	3	4
2	4	1	2	3	11
3	4	1	2	3	12
4	1	1	6	5	4
4	2	1	6	5	4
4	3	1	6	5	4
5	4	1	6	5	15
6	4	1	6	5	16
7	1	2	1	6	5
7	2	2	1	6	5
7	3	2	1	6	5
8	4	2	1	6	17
9	4	2	1	6	18
10	1	2	3	4	5
10	2	2	3	4	5
10	3	2	3	4	5
11	4	2	3	4	13
12	4	2	3	4	14
13	1	3	2	1	6
13	2	3	2	1	6
13	3	3	2	1	6
14	4	3	2	1	7
15	4	3	2	1	8
16	1	3	4	5	6
16	2	3	4	5	6
16	3	3	4	5	6
17	4	3	4	5	15
18	4	3	4	5	16
19	4	4	3	2	9
20	4	4	3	2	10
21	4	4	5	6	17
22	4	4	5	6	18
23	4	5	4	3	11
24	4	5	4	3	12
25	4	5	6	1	7
26	4	5	6	1	8
27	4	6	1	2	9
28	4	6	1	2	10
29	4	6	5	4	13
30	4	6	5	4	14
31	5	7	1	2	9
32	5	7	1	2	10
33	5	7	1	6	17
34	5	7	1	6	18
35	5	8	1	2	9
36	5	8	1	2	10
37	5	8	1	6	17
38	5	8	1	6	18
39	5	9	2	3	11
40	5	9	2	3	12
41	5	10	2	3	11
42	5	10	2	3	12
43	5	11	3	4	13
44	5	11	3	4	14
45	5	12	3	4	13
46	5	12	3	4	14
47	5	13	4	5	15
48	5	13	4	5	16
49	5	14	4	5	15
50	5	14	4	5	16
51	5	15	5	6	17
52	5	15	5	6	18
53	5	16	5	6	17
54	5	16	5	6	18
