Title

38 atoms
37 bonds
72 angles
117 dihedrals
0 impropers

2 atom types
2 bond types
2 angle types

5 dihedral types

-5.468295595 394.5317044 xlo xhi
-1.856146564 398.1438534 ylo yhi
-2.251770052 397.7482299 zlo zhi
0.0 0.0 0.0 xy xz yz

Masses

1	12.01078
2	1.007947


Pair Coeffs

1	0.10884061	3.3795318
2	0.015779483	2.6445434

Bond Coeffs

1 harmonic	264.62148576755	1.52190126495
2 harmonic	370.04670688625	1.093899492634


Angle Coeffs

1 harmonic	53.20531626545	116.5475862634
2 harmonic	48.776492647595	115.6030999533


Dihedral Coeffs

1 fourier 1	0.09223874044423	3	0
2 fourier 1	0.3159935921949	2	180
3 fourier 1	0.3247796806857	1	180
4 fourier 1	0.1040663847541	3	0
5 fourier 1	0.1911926717192	3	0


Atoms

1	1	1	-0.093047421	-4.0562761	0.86387052	-0.74220729
2	1	1	-0.079347421	-4.5680282	-0.011028313	0.31909858
3	1	1	-0.078347421	-3.7094965	-1.0507451	0.92077211
4	1	1	-0.077847421	-2.4721402	-0.66999029	1.6315798
5	1	1	-0.079847421	-1.4313061	-0.023392375	0.77238608
6	1	1	-0.078347421	-0.99176562	-0.9738624	-0.29233206
7	1	1	-0.078347421	0.057414243	-0.39336747	-1.2225754
8	1	1	-0.079847421	1.3078744	0.0084236413	-0.4734443
9	1	1	-0.077847421	2.3519549	0.58067629	-1.410336
10	1	1	-0.078347421	3.5801498	0.97031421	-0.64004114
11	1	1	-0.079347421	4.2263107	-0.16971481	0.086019272
12	1	1	-0.093047421	5.4497101	0.41618039	0.8057369
13	1	2	0.032419579	-4.9590781	1.1345135	-1.3960969
14	1	2	0.032419579	-3.7286771	1.8886458	-0.39426959
15	1	2	0.032419579	-3.2887906	0.41360729	-1.3820226
16	1	2	0.037752579	-5.4682956	-0.55404581	-0.10244366
17	1	2	0.037752579	-5.0109475	0.63831318	1.1605286
18	1	2	0.038752579	-4.389615	-1.6630883	1.6127037
19	1	2	0.038752579	-3.4870066	-1.8230998	0.12406239
20	1	2	0.038752579	-2.0554242	-1.6372793	2.0769103
21	1	2	0.038752579	-2.6693432	-0.056160959	2.5522784
22	1	2	0.040502579	-1.7829827	0.91861901	0.33363655
23	1	2	0.040502579	-0.50541864	0.19061603	1.4081392
24	1	2	0.039002579	-1.8482791	-1.3246974	-0.87843243
25	1	2	0.039002579	-0.54935783	-1.8561466	0.2340168
26	1	2	0.039002579	-0.42104988	0.4768581	-1.7172978
27	1	2	0.039002579	0.33870081	-1.1626597	-1.960397
28	1	2	0.040502579	1.0020398	0.84113627	0.22609448
29	1	2	0.040502579	1.701167	-0.79717941	0.16002929
30	1	2	0.038752579	1.9239369	1.5142677	-1.8364576
31	1	2	0.038752579	2.5746353	-0.088521752	-2.2517701
32	1	2	0.038752579	3.2425188	1.7000866	0.15368456
33	1	2	0.038752579	4.3284895	1.4990829	-1.2304645
34	1	2	0.037752579	4.5232822	-0.99921133	-0.57105084
35	1	2	0.037752579	3.582219	-0.56829801	0.91254878
36	1	2	0.032419579	5.1000941	1.3005139	1.3626756
37	1	2	0.032419579	6.1560549	0.79116419	0.011504252
38	1	2	0.032419579	5.9467264	-0.32440025	1.4386541

Bonds

1	1	1	2
2	2	1	13
3	2	1	14
4	2	1	15
5	1	2	3
6	2	2	16
7	2	2	17
8	1	3	4
9	2	3	18
10	2	3	19
11	1	4	5
12	2	4	20
13	2	4	21
14	1	5	6
15	2	5	22
16	2	5	23
17	1	6	7
18	2	6	24
19	2	6	25
20	1	7	8
21	2	7	26
22	2	7	27
23	1	8	9
24	2	8	28
25	2	8	29
26	1	9	10
27	2	9	30
28	2	9	31
29	1	10	11
30	2	10	32
31	2	10	33
32	1	11	12
33	2	11	34
34	2	11	35
35	2	12	36
36	2	12	37
37	2	12	38

Angles

1	1	1	2	3
2	1	1	2	16
3	1	1	2	17
4	1	2	1	13
5	1	2	1	14
6	1	2	1	15
7	1	2	3	4
8	1	2	3	18
9	1	2	3	19
10	1	3	2	16
11	1	3	2	17
12	1	3	4	5
13	1	3	4	20
14	1	3	4	21
15	1	4	3	18
16	1	4	3	19
17	1	4	5	6
18	1	4	5	22
19	1	4	5	23
20	1	5	4	20
21	1	5	4	21
22	1	5	6	7
23	1	5	6	24
24	1	5	6	25
25	1	6	5	22
26	1	6	5	23
27	1	6	7	8
28	1	6	7	26
29	1	6	7	27
30	1	7	6	24
31	1	7	6	25
32	1	7	8	9
33	1	7	8	28
34	1	7	8	29
35	1	8	7	26
36	1	8	7	27
37	1	8	9	10
38	1	8	9	30
39	1	8	9	31
40	1	9	8	28
41	1	9	8	29
42	1	9	10	11
43	1	9	10	32
44	1	9	10	33
45	1	10	9	30
46	1	10	9	31
47	1	10	11	12
48	1	10	11	34
49	1	10	11	35
50	1	11	10	32
51	1	11	10	33
52	1	11	12	36
53	1	11	12	37
54	1	11	12	38
55	1	12	11	34
56	1	12	11	35
57	2	13	1	14
58	2	13	1	15
59	2	14	1	15
60	2	16	2	17
61	2	18	3	19
62	2	20	4	21
63	2	22	5	23
64	2	24	6	25
65	2	26	7	27
66	2	28	8	29
67	2	30	9	31
68	2	32	10	33
69	2	34	11	35
70	2	36	12	37
71	2	36	12	38
72	2	37	12	38

Dihedrals

1	1	1	2	3	4
1	2	1	2	3	4
1	3	1	2	3	4
2	4	1	2	3	18
3	4	1	2	3	19
4	1	2	3	4	5
4	2	2	3	4	5
4	3	2	3	4	5
5	4	2	3	4	20
6	4	2	3	4	21
7	4	3	2	1	13
8	4	3	2	1	14
9	4	3	2	1	15
10	1	3	4	5	6
10	2	3	4	5	6
10	3	3	4	5	6
11	4	3	4	5	22
12	4	3	4	5	23
13	4	4	3	2	16
14	4	4	3	2	17
15	1	4	5	6	7
15	2	4	5	6	7
15	3	4	5	6	7
16	4	4	5	6	24
17	4	4	5	6	25
18	4	5	4	3	18
19	4	5	4	3	19
20	1	5	6	7	8
20	2	5	6	7	8
20	3	5	6	7	8
21	4	5	6	7	26
22	4	5	6	7	27
23	4	6	5	4	20
24	4	6	5	4	21
25	1	6	7	8	9
25	2	6	7	8	9
25	3	6	7	8	9
26	4	6	7	8	28
27	4	6	7	8	29
28	4	7	6	5	22
29	4	7	6	5	23
30	1	7	8	9	10
30	2	7	8	9	10
30	3	7	8	9	10
31	4	7	8	9	30
32	4	7	8	9	31
33	4	8	7	6	24
34	4	8	7	6	25
35	1	8	9	10	11
35	2	8	9	10	11
35	3	8	9	10	11
36	4	8	9	10	32
37	4	8	9	10	33
38	4	9	8	7	26
39	4	9	8	7	27
40	1	9	10	11	12
40	2	9	10	11	12
40	3	9	10	11	12
41	4	9	10	11	34
42	4	9	10	11	35
43	4	10	9	8	28
44	4	10	9	8	29
45	4	10	11	12	36
46	4	10	11	12	37
47	4	10	11	12	38
48	4	11	10	9	30
49	4	11	10	9	31
50	4	12	11	10	32
51	4	12	11	10	33
52	5	13	1	2	16
53	5	13	1	2	17
54	5	14	1	2	16
55	5	14	1	2	17
56	5	15	1	2	16
57	5	15	1	2	17
58	5	16	2	3	18
59	5	16	2	3	19
60	5	17	2	3	18
61	5	17	2	3	19
62	5	18	3	4	20
63	5	18	3	4	21
64	5	19	3	4	20
65	5	19	3	4	21
66	5	20	4	5	22
67	5	20	4	5	23
68	5	21	4	5	22
69	5	21	4	5	23
70	5	22	5	6	24
71	5	22	5	6	25
72	5	23	5	6	24
73	5	23	5	6	25
74	5	24	6	7	26
75	5	24	6	7	27
76	5	25	6	7	26
77	5	25	6	7	27
78	5	26	7	8	28
79	5	26	7	8	29
80	5	27	7	8	28
81	5	27	7	8	29
82	5	28	8	9	30
83	5	28	8	9	31
84	5	29	8	9	30
85	5	29	8	9	31
86	5	30	9	10	32
87	5	30	9	10	33
88	5	31	9	10	32
89	5	31	9	10	33
90	5	32	10	11	34
91	5	32	10	11	35
92	5	33	10	11	34
93	5	33	10	11	35
94	5	34	11	12	36
95	5	34	11	12	37
96	5	34	11	12	38
97	5	35	11	12	36
98	5	35	11	12	37
99	5	35	11	12	38
