Title

20 atoms
19 bonds
36 angles
51 dihedrals
0 impropers

2 atom types
2 bond types
2 angle types

5 dihedral types

-3.936574629 396.0634254 xlo xhi
-1.381110731 398.6188893 ylo yhi
-1.396028016 398.603972 zlo zhi
0.0 0.0 0.0 xy xz yz

Masses

1	12.01078
2	1.007947


Pair Coeffs

1	0.10884061	3.3795318
2	0.015779483	2.6445434

Bond Coeffs

1 harmonic	264.62148576755	1.52190126495
2 harmonic	370.04670688625	1.093899492634


Angle Coeffs

1 harmonic	53.20531626545	116.5475862634
2 harmonic	48.776492647595	115.6030999533


Dihedral Coeffs

1 fourier 1	0.09223874044423	3	0
2 fourier 1	0.3159935921949	2	180
3 fourier 1	0.3247796806857	1	180
4 fourier 1	0.1040663847541	3	0
5 fourier 1	0.1911926717192	3	0


Atoms

1	1	1	-0.0922	-3.0907009	-0.14370945	-0.020941099
2	1	1	-0.0805	-1.8149307	0.65119893	0.15921304
3	1	1	-0.0795	-0.66411735	-0.25943751	-0.17009605
4	1	1	-0.0795	0.67402128	0.4685802	-0.013057869
5	1	1	-0.0805	1.7376613	-0.54003478	-0.36769596
6	1	1	-0.0922	3.1237681	0.008239025	-0.26722345
7	1	2	0.0326	-2.8831756	-1.1579875	0.43123642
8	1	2	0.0326	-3.9365746	0.26886021	0.56434172
9	1	2	0.0326	-3.3412082	-0.27875637	-1.0974533
10	1	2	0.0386	-1.7767173	0.98468605	1.2008685
11	1	2	0.0386	-1.7858619	1.4886114	-0.57305426
12	1	2	0.0386	-0.72133641	-1.13528	0.48439997
13	1	2	0.0386	-0.72369185	-0.58297092	-1.2188477
14	1	2	0.0386	0.7406596	1.3137293	-0.72906992
15	1	2	0.0386	0.78988147	0.88249335	1.0023876
16	1	2	0.0386	1.6497692	-1.3811107	0.34523848
17	1	2	0.0386	1.5502787	-0.87310863	-1.396028
18	1	2	0.0326	3.2839091	0.31217854	0.79996328
19	1	2	0.0326	3.3570951	0.79815918	-0.98485484
20	1	2	0.0326	3.8312709	-0.82434014	-0.45053866

Bonds

1	1	1	2
2	2	1	7
3	2	1	8
4	2	1	9
5	1	2	3
6	2	2	10
7	2	2	11
8	1	3	4
9	2	3	12
10	2	3	13
11	1	4	5
12	2	4	14
13	2	4	15
14	1	5	6
15	2	5	16
16	2	5	17
17	2	6	18
18	2	6	19
19	2	6	20

Angles

1	1	1	2	3
2	1	1	2	10
3	1	1	2	11
4	1	2	1	7
5	1	2	1	8
6	1	2	1	9
7	1	2	3	4
8	1	2	3	12
9	1	2	3	13
10	1	3	2	10
11	1	3	2	11
12	1	3	4	5
13	1	3	4	14
14	1	3	4	15
15	1	4	3	12
16	1	4	3	13
17	1	4	5	6
18	1	4	5	16
19	1	4	5	17
20	1	5	4	14
21	1	5	4	15
22	1	5	6	18
23	1	5	6	19
24	1	5	6	20
25	1	6	5	16
26	1	6	5	17
27	2	7	1	8
28	2	7	1	9
29	2	8	1	9
30	2	10	2	11
31	2	12	3	13
32	2	14	4	15
33	2	16	5	17
34	2	18	6	19
35	2	18	6	20
36	2	19	6	20

Dihedrals

1	1	1	2	3	4
1	2	1	2	3	4
1	3	1	2	3	4
2	4	1	2	3	12
3	4	1	2	3	13
4	1	2	3	4	5
4	2	2	3	4	5
4	3	2	3	4	5
5	4	2	3	4	14
6	4	2	3	4	15
7	4	3	2	1	7
8	4	3	2	1	8
9	4	3	2	1	9
10	1	3	4	5	6
10	2	3	4	5	6
10	3	3	4	5	6
11	4	3	4	5	16
12	4	3	4	5	17
13	4	4	3	2	10
14	4	4	3	2	11
15	4	4	5	6	18
16	4	4	5	6	19
17	4	4	5	6	20
18	4	5	4	3	12
19	4	5	4	3	13
20	4	6	5	4	14
21	4	6	5	4	15
22	5	7	1	2	10
23	5	7	1	2	11
24	5	8	1	2	10
25	5	8	1	2	11
26	5	9	1	2	10
27	5	9	1	2	11
28	5	10	2	3	12
29	5	10	2	3	13
30	5	11	2	3	12
31	5	11	2	3	13
32	5	12	3	4	14
33	5	12	3	4	15
34	5	13	3	4	14
35	5	13	3	4	15
36	5	14	4	5	16
37	5	14	4	5	17
38	5	15	4	5	16
39	5	15	4	5	17
40	5	16	5	6	18
41	5	16	5	6	19
42	5	16	5	6	20
43	5	17	5	6	18
44	5	17	5	6	19
45	5	17	5	6	20
