Title

47 atoms
46 bonds
90 angles
150 dihedrals
0 impropers

2 atom types
2 bond types
2 angle types

5 dihedral types

-5.739824012 394.260176 xlo xhi
-1.862664529 398.1373355 ylo yhi
-3.295743567 396.7042564 zlo zhi
0.0 0.0 0.0 xy xz yz

Masses

1	12.01078
2	1.007947


Pair Coeffs

1	0.10884061	3.3795318
2	0.015779483	2.6445434

Bond Coeffs

1 harmonic	264.62148576755	1.52190126495
2 harmonic	370.04670688625	1.093899492634


Angle Coeffs

1 harmonic	53.20531626545	116.5475862634
2 harmonic	48.776492647595	115.6030999533


Dihedral Coeffs

1 fourier 1	0.09223874044423	3	0
2 fourier 1	0.3159935921949	2	180
3 fourier 1	0.3247796806857	1	180
4 fourier 1	0.1040663847541	3	0
5 fourier 1	0.1911926717192	3	0


Atoms

1	1	1	-0.09253617	-4.9520972	-0.89498356	2.0690165
2	1	1	-0.08033617	-4.4149519	-1.2524132	0.69049365
3	1	1	-0.07883617	-4.2404325	0.045183123	-0.079166819
4	1	1	-0.07933617	-3.6987037	-0.28870764	-1.4753671
5	1	1	-0.07783617	-3.5254048	0.97862869	-2.2349369
6	1	1	-0.07833617	-2.6241232	1.9705399	-1.6301566
7	1	1	-0.07833617	-1.1858019	1.7557599	-1.463187
8	1	1	-0.08033617	-0.73475303	0.61464864	-0.65045463
9	1	1	-0.07833617	0.82434161	0.63694638	-0.50671327
10	1	1	-0.07833617	1.1367955	-0.57122212	0.33689461
11	1	1	-0.07783617	2.6218059	-0.7239772	0.59075751
12	1	1	-0.07933617	3.2161695	0.43973957	1.3014674
13	1	1	-0.07883617	4.6833926	0.20579631	1.5288423
14	1	1	-0.08033617	5.4418762	0.02682329	0.24438093
15	1	1	-0.09253617	6.9176355	-0.18584329	0.56627718
16	1	2	0.03226383	-5.4123182	-1.782286	2.5579469
17	1	2	0.03226383	-5.739824	-0.10362387	1.9185803
18	1	2	0.03226383	-4.1028569	-0.47763711	2.6365172
19	1	2	0.03851383	-5.1418023	-1.8626645	0.14018348
20	1	2	0.03851383	-3.4345737	-1.7519287	0.80488044
21	1	2	0.03926383	-5.2077726	0.56832245	-0.15708714
22	1	2	0.03926383	-3.5554849	0.70797788	0.47272305
23	1	2	0.03951383	-2.8570351	-0.9546746	-1.3771384
24	1	2	0.03951383	-4.5526043	-0.85491634	-2.0012747
25	1	2	0.03926383	-4.5902903	1.4030946	-2.3260477
26	1	2	0.03926383	-3.2159427	0.732778	-3.2957436
27	1	2	0.03901383	-2.7880213	2.932379	-2.2645842
28	1	2	0.03901383	-3.0955125	2.3428037	-0.63982292
29	1	2	0.03851383	-0.73402263	1.6910136	-2.5218782
30	1	2	0.03851383	-0.69864267	2.7186053	-1.0938094
31	1	2	0.04076383	-0.84613151	-0.31739175	-1.2940878
32	1	2	0.04076383	-1.1868524	0.4544414	0.30888967
33	1	2	0.03851383	1.2668356	0.62163047	-1.5016828
34	1	2	0.03851383	1.0291423	1.5885661	0.023549504
35	1	2	0.03901383	0.81831477	-1.4661492	-0.23851535
36	1	2	0.03901383	0.55102887	-0.53495587	1.2529673
37	1	2	0.03926383	3.1515044	-0.88669557	-0.36918083
38	1	2	0.03926383	2.7622844	-1.6301204	1.2133376
39	1	2	0.03951383	2.7664689	0.60449034	2.3088442
40	1	2	0.03951383	3.1447158	1.3835128	0.69840874
41	1	2	0.03926383	4.8050375	-0.74310678	2.1164498
42	1	2	0.03926383	5.1469896	0.98909186	2.1625709
43	1	2	0.03851383	5.3072618	0.90688479	-0.3857905
44	1	2	0.03851383	5.1321455	-0.92148653	-0.27258102
45	1	2	0.03226383	7.4406634	0.78752025	0.68871695
46	1	2	0.03226383	6.9908072	-0.83879438	1.4499542
47	1	2	0.03226383	7.3807394	-0.70194171	-0.30344365

Bonds

1	1	1	2
2	2	1	16
3	2	1	17
4	2	1	18
5	1	2	3
6	2	2	19
7	2	2	20
8	1	3	4
9	2	3	21
10	2	3	22
11	1	4	5
12	2	4	23
13	2	4	24
14	1	5	6
15	2	5	25
16	2	5	26
17	1	6	7
18	2	6	27
19	2	6	28
20	1	7	8
21	2	7	29
22	2	7	30
23	1	8	9
24	2	8	31
25	2	8	32
26	1	9	10
27	2	9	33
28	2	9	34
29	1	10	11
30	2	10	35
31	2	10	36
32	1	11	12
33	2	11	37
34	2	11	38
35	1	12	13
36	2	12	39
37	2	12	40
38	1	13	14
39	2	13	41
40	2	13	42
41	1	14	15
42	2	14	43
43	2	14	44
44	2	15	45
45	2	15	46
46	2	15	47

Angles

1	1	1	2	3
2	1	1	2	19
3	1	1	2	20
4	1	2	1	16
5	1	2	1	17
6	1	2	1	18
7	1	2	3	4
8	1	2	3	21
9	1	2	3	22
10	1	3	2	19
11	1	3	2	20
12	1	3	4	5
13	1	3	4	23
14	1	3	4	24
15	1	4	3	21
16	1	4	3	22
17	1	4	5	6
18	1	4	5	25
19	1	4	5	26
20	1	5	4	23
21	1	5	4	24
22	1	5	6	7
23	1	5	6	27
24	1	5	6	28
25	1	6	5	25
26	1	6	5	26
27	1	6	7	8
28	1	6	7	29
29	1	6	7	30
30	1	7	6	27
31	1	7	6	28
32	1	7	8	9
33	1	7	8	31
34	1	7	8	32
35	1	8	7	29
36	1	8	7	30
37	1	8	9	10
38	1	8	9	33
39	1	8	9	34
40	1	9	8	31
41	1	9	8	32
42	1	9	10	11
43	1	9	10	35
44	1	9	10	36
45	1	10	9	33
46	1	10	9	34
47	1	10	11	12
48	1	10	11	37
49	1	10	11	38
50	1	11	10	35
51	1	11	10	36
52	1	11	12	13
53	1	11	12	39
54	1	11	12	40
55	1	12	11	37
56	1	12	11	38
57	1	12	13	14
58	1	12	13	41
59	1	12	13	42
60	1	13	12	39
61	1	13	12	40
62	1	13	14	15
63	1	13	14	43
64	1	13	14	44
65	1	14	13	41
66	1	14	13	42
67	1	14	15	45
68	1	14	15	46
69	1	14	15	47
70	1	15	14	43
71	1	15	14	44
72	2	16	1	17
73	2	16	1	18
74	2	17	1	18
75	2	19	2	20
76	2	21	3	22
77	2	23	4	24
78	2	25	5	26
79	2	27	6	28
80	2	29	7	30
81	2	31	8	32
82	2	33	9	34
83	2	35	10	36
84	2	37	11	38
85	2	39	12	40
86	2	41	13	42
87	2	43	14	44
88	2	45	15	46
89	2	45	15	47
90	2	46	15	47

Dihedrals

1	1	1	2	3	4
1	2	1	2	3	4
1	3	1	2	3	4
2	4	1	2	3	21
3	4	1	2	3	22
4	1	2	3	4	5
4	2	2	3	4	5
4	3	2	3	4	5
5	4	2	3	4	23
6	4	2	3	4	24
7	4	3	2	1	16
8	4	3	2	1	17
9	4	3	2	1	18
10	1	3	4	5	6
10	2	3	4	5	6
10	3	3	4	5	6
11	4	3	4	5	25
12	4	3	4	5	26
13	4	4	3	2	19
14	4	4	3	2	20
15	1	4	5	6	7
15	2	4	5	6	7
15	3	4	5	6	7
16	4	4	5	6	27
17	4	4	5	6	28
18	4	5	4	3	21
19	4	5	4	3	22
20	1	5	6	7	8
20	2	5	6	7	8
20	3	5	6	7	8
21	4	5	6	7	29
22	4	5	6	7	30
23	4	6	5	4	23
24	4	6	5	4	24
25	1	6	7	8	9
25	2	6	7	8	9
25	3	6	7	8	9
26	4	6	7	8	31
27	4	6	7	8	32
28	4	7	6	5	25
29	4	7	6	5	26
30	1	7	8	9	10
30	2	7	8	9	10
30	3	7	8	9	10
31	4	7	8	9	33
32	4	7	8	9	34
33	4	8	7	6	27
34	4	8	7	6	28
35	1	8	9	10	11
35	2	8	9	10	11
35	3	8	9	10	11
36	4	8	9	10	35
37	4	8	9	10	36
38	4	9	8	7	29
39	4	9	8	7	30
40	1	9	10	11	12
40	2	9	10	11	12
40	3	9	10	11	12
41	4	9	10	11	37
42	4	9	10	11	38
43	4	10	9	8	31
44	4	10	9	8	32
45	1	10	11	12	13
45	2	10	11	12	13
45	3	10	11	12	13
46	4	10	11	12	39
47	4	10	11	12	40
48	4	11	10	9	33
49	4	11	10	9	34
50	1	11	12	13	14
50	2	11	12	13	14
50	3	11	12	13	14
51	4	11	12	13	41
52	4	11	12	13	42
53	4	12	11	10	35
54	4	12	11	10	36
55	1	12	13	14	15
55	2	12	13	14	15
55	3	12	13	14	15
56	4	12	13	14	43
57	4	12	13	14	44
58	4	13	12	11	37
59	4	13	12	11	38
60	4	13	14	15	45
61	4	13	14	15	46
62	4	13	14	15	47
63	4	14	13	12	39
64	4	14	13	12	40
65	4	15	14	13	41
66	4	15	14	13	42
67	5	16	1	2	19
68	5	16	1	2	20
69	5	17	1	2	19
70	5	17	1	2	20
71	5	18	1	2	19
72	5	18	1	2	20
73	5	19	2	3	21
74	5	19	2	3	22
75	5	20	2	3	21
76	5	20	2	3	22
77	5	21	3	4	23
78	5	21	3	4	24
79	5	22	3	4	23
80	5	22	3	4	24
81	5	23	4	5	25
82	5	23	4	5	26
83	5	24	4	5	25
84	5	24	4	5	26
85	5	25	5	6	27
86	5	25	5	6	28
87	5	26	5	6	27
88	5	26	5	6	28
89	5	27	6	7	29
90	5	27	6	7	30
91	5	28	6	7	29
92	5	28	6	7	30
93	5	29	7	8	31
94	5	29	7	8	32
95	5	30	7	8	31
96	5	30	7	8	32
97	5	31	8	9	33
98	5	31	8	9	34
99	5	32	8	9	33
100	5	32	8	9	34
101	5	33	9	10	35
102	5	33	9	10	36
103	5	34	9	10	35
104	5	34	9	10	36
105	5	35	10	11	37
106	5	35	10	11	38
107	5	36	10	11	37
108	5	36	10	11	38
109	5	37	11	12	39
110	5	37	11	12	40
111	5	38	11	12	39
112	5	38	11	12	40
113	5	39	12	13	41
114	5	39	12	13	42
115	5	40	12	13	41
116	5	40	12	13	42
117	5	41	13	14	43
118	5	41	13	14	44
119	5	42	13	14	43
120	5	42	13	14	44
121	5	43	14	15	45
122	5	43	14	15	46
123	5	43	14	15	47
124	5	44	14	15	45
125	5	44	14	15	46
126	5	44	14	15	47
