Title

16 atoms
16 bonds
24 angles
32 dihedrals
24 impropers

2 atom types
4 bond types
3 angle types

3 dihedral types

1 improper types

-3.41065521 396.5893448 xlo xhi
-2.281823434 397.7181766 ylo yhi
-0.5703332447 399.4296668 zlo zhi
0.0 0.0 0.0 xy xz yz

Masses

1	12.01078
2	1.007947


Pair Coeffs

1	0.086879315	3.4806469
2	0.015611343	2.5725815

Bond Coeffs

1 harmonic	360.7852444772	1.387193227181
2 harmonic	397.2545789619	1.085358495916
3 harmonic	279.1350963404	1.454628925034
4 harmonic	399.1592953295	1.371688562017


Angle Coeffs

1 harmonic	57.8982893754	126.8062420451
2 harmonic	34.066775159195	129.1835929926
3 harmonic	22.69631544292	130.7309534886


Dihedral Coeffs

1 fourier 1	3.661930099076	2	180
2 fourier 1	1.163235555439	2	180
3 fourier 1	5.294842998052	2	180


Improper Coeffs

1 0.3666666666666667	-1	2


Atoms

1	1	1	-0.1185	-0.098987508	1.0027447	-0.14442991
2	1	1	-0.1315	-1.4676691	1.2539486	0.0039307236
3	1	1	-0.127	-2.3439391	0.23025273	0.28561078
4	1	1	-0.1315	-1.8221763	-1.0397552	0.41413369
5	1	1	-0.1185	-0.47491454	-1.2836566	0.26756593
6	1	1	-0.0568	0.42310096	-0.26620393	-0.016122006
7	1	1	-0.1122	1.8413669	-0.53955804	-0.16783879
8	1	1	-0.209	2.7399135	0.36455637	-0.43378882
9	1	2	0.1315	0.56101356	1.8333352	-0.36596982
10	1	2	0.131	-1.857237	2.2494171	-0.099466521
11	1	2	0.131	-3.4106552	0.4199571	0.40220917
12	1	2	0.131	-2.5087107	-1.8491285	0.63596734
13	1	2	0.1315	-0.064854648	-2.2818234	0.3685914
14	1	2	0.122	2.163393	-1.580323	-0.048012677
15	1	2	0.1135	3.7957223	0.06787424	-0.53204725
16	1	2	0.1135	2.524634	1.4183627	-0.57033324

Bonds

1	1	1	2
2	1	1	6
3	2	1	9
4	1	2	3
5	2	2	10
6	1	3	4
7	2	3	11
8	1	4	5
9	2	4	12
10	1	5	6
11	2	5	13
12	3	6	7
13	4	7	8
14	2	7	14
15	2	8	15
16	2	8	16

Angles

1	1	1	2	3
2	2	1	2	10
3	1	1	6	5
4	1	1	6	7
5	1	2	1	6
6	2	2	1	9
7	1	2	3	4
8	2	2	3	11
9	2	3	2	10
10	1	3	4	5
11	2	3	4	12
12	2	4	3	11
13	1	4	5	6
14	2	4	5	13
15	2	5	4	12
16	1	5	6	7
17	2	6	1	9
18	2	6	5	13
19	1	6	7	8
20	2	6	7	14
21	2	7	8	15
22	2	7	8	16
23	2	8	7	14
24	3	15	8	16

Dihedrals

1	1	1	2	3	4
2	1	1	2	3	11
3	1	1	6	5	4
4	1	1	6	5	13
5	2	1	6	7	8
6	2	1	6	7	14
7	1	2	1	6	5
8	1	2	1	6	7
9	1	2	3	4	5
10	1	2	3	4	12
11	1	3	2	1	6
12	1	3	2	1	9
13	1	3	4	5	6
14	1	3	4	5	13
15	1	4	3	2	10
16	1	4	5	6	7
17	1	5	4	3	11
18	1	5	6	1	9
19	2	5	6	7	8
20	2	5	6	7	14
21	1	6	1	2	10
22	1	6	5	4	12
23	3	6	7	8	15
24	3	6	7	8	16
25	1	7	6	1	9
26	1	7	6	5	13
27	1	9	1	2	10
28	1	10	2	3	11
29	1	11	3	4	12
30	1	12	4	5	13
31	3	14	7	8	15
32	3	14	7	8	16

Impropers

1	1	2	1	3	10
3	1	6	1	5	7
5	1	1	2	6	9
7	1	3	2	4	11
10	1	2	3	10	1
11	1	4	3	5	12
14	1	3	4	11	2
15	1	5	4	6	13
18	1	4	5	12	3
20	1	6	5	7	1
22	1	1	6	9	2
24	1	5	6	13	4
25	1	7	6	8	14
27	1	6	7	1	5
29	1	8	7	15	16
32	1	7	8	14	6
33	1	1	9	2	6
35	1	2	10	1	3
37	1	3	11	2	4
39	1	4	12	3	5
41	1	5	13	4	6
43	1	7	14	6	8
46	1	8	15	16	7
47	1	8	16	7	15
